<?xml version="1.0" encoding="UTF-8"?>

<!-- generated on Sun Sep  9 07:15:14 2018 by SUMO Version 0.32.0
<?xml version="1.0" encoding="UTF-8"?>

<configuration xmlns:xsi="http://www.w3.org/2001/XMLSchema-instance" xsi:noNamespaceSchemaLocation="http://sumo.dlr.de/xsd/sumoConfiguration.xsd">

    <input>
        <net-file value="gym_sumo/data/cross.net.xml"/>
        <route-files value="gym_sumo/data/cross.rou.xml"/>
        <additional-files value="gym_sumo/data/cross.det.xml"/>
    </input>

    <output>
        <tripinfo-output value="tripinfo.xml"/>
    </output>

    <time>
        <begin value="0"/>
    </time>

    <report>
        <verbose value="true"/>
        <no-warnings value="true"/>
        <no-step-log value="true"/>
    </report>

    <traci_server>
        <remote-port value="39949"/>
    </traci_server>

</configuration>
-->

<tripinfos xmlns:xsi="http://www.w3.org/2001/XMLSchema-instance" xsi:noNamespaceSchemaLocation="http://sumo.dlr.de/xsd/tripinfo_file.xsd">
    <tripinfo id="right_2" depart="3.00" departLane="51o_0" departPos="5.10" departSpeed="0.00" departDelay="0.00" arrival="146.00" arrivalLane="52i_0" arrivalPos="10.00" arrivalSpeed="11.59" duration="143.00" routeLength="1015.10" waitSteps="42" timeLoss="66.92" rerouteNo="0" devices="tripinfo_right_2" vType="typeWE" speedFactor="1.00" vaporized=""/>
    <tripinfo id="left_0" depart="0.00" departLane="52o_0" departPos="5.10" departSpeed="0.00" departDelay="0.00" arrival="147.00" arrivalLane="51i_0" arrivalPos="10.00" arrivalSpeed="11.53" duration="147.00" routeLength="1015.10" waitSteps="44" timeLoss="70.84" rerouteNo="0" devices="tripinfo_left_0" vType="typeWE" speedFactor="1.00" vaporized=""/>
    <tripinfo id="right_3" depart="8.00" departLane="51o_0" departPos="5.10" departSpeed="0.00" departDelay="4.00" arrival="149.00" arrivalLane="52i_0" arrivalPos="10.00" arrivalSpeed="11.83" duration="141.00" routeLength="1015.10" waitSteps="37" timeLoss="65.09" rerouteNo="0" devices="tripinfo_right_3" vType="typeWE" speedFactor="1.00" vaporized=""/>
    <tripinfo id="left_1" depart="5.00" departLane="52o_0" departPos="5.10" departSpeed="0.00" departDelay="3.00" arrival="149.00" arrivalLane="51i_0" arrivalPos="10.00" arrivalSpeed="11.44" duration="144.00" routeLength="1015.10" waitSteps="41" timeLoss="67.61" rerouteNo="0" devices="tripinfo_left_1" vType="typeWE" speedFactor="1.00" vaporized=""/>
    <tripinfo id="right_5" depart="13.00" departLane="51o_0" departPos="5.10" departSpeed="0.00" departDelay="4.00" arrival="151.00" arrivalLane="52i_0" arrivalPos="10.00" arrivalSpeed="11.20" duration="138.00" routeLength="1015.10" waitSteps="35" timeLoss="61.88" rerouteNo="0" devices="tripinfo_right_5" vType="typeWE" speedFactor="1.00" vaporized=""/>
    <tripinfo id="left_4" depart="10.00" departLane="52o_0" departPos="5.10" departSpeed="0.00" departDelay="4.00" arrival="151.00" arrivalLane="51i_0" arrivalPos="10.00" arrivalSpeed="11.48" duration="141.00" routeLength="1015.10" waitSteps="37" timeLoss="64.45" rerouteNo="0" devices="tripinfo_left_4" vType="typeWE" speedFactor="1.00" vaporized=""/>
    <tripinfo id="right_10" depart="42.00" departLane="51o_0" departPos="5.10" departSpeed="0.00" departDelay="0.00" arrival="153.00" arrivalLane="52i_0" arrivalPos="10.00" arrivalSpeed="11.38" duration="111.00" routeLength="1015.10" waitSteps="5" timeLoss="34.72" rerouteNo="0" devices="tripinfo_right_10" vType="typeWE" speedFactor="1.00" vaporized=""/>
    <tripinfo id="left_6" depart="22.00" departLane="52o_0" departPos="5.10" departSpeed="0.00" departDelay="0.00" arrival="153.00" arrivalLane="51i_0" arrivalPos="10.00" arrivalSpeed="11.75" duration="131.00" routeLength="1015.10" waitSteps="26" timeLoss="54.58" rerouteNo="0" devices="tripinfo_left_6" vType="typeWE" speedFactor="1.00" vaporized=""/>
    <tripinfo id="right_13" depart="55.00" departLane="51o_0" departPos="5.10" departSpeed="0.00" departDelay="0.00" arrival="155.00" arrivalLane="52i_0" arrivalPos="10.00" arrivalSpeed="11.83" duration="100.00" routeLength="1015.10" waitSteps="0" timeLoss="23.48" rerouteNo="0" devices="tripinfo_right_13" vType="typeWE" speedFactor="1.00" vaporized=""/>
    <tripinfo id="left_7" depart="31.00" departLane="52o_0" departPos="5.10" departSpeed="0.00" departDelay="0.00" arrival="155.00" arrivalLane="51i_0" arrivalPos="10.00" arrivalSpeed="11.52" duration="124.00" routeLength="1015.10" waitSteps="20" timeLoss="47.38" rerouteNo="0" devices="tripinfo_left_7" vType="typeWE" speedFactor="1.00" vaporized=""/>
    <tripinfo id="left_8" depart="36.00" departLane="52o_0" departPos="5.10" departSpeed="0.00" departDelay="3.00" arrival="156.00" arrivalLane="51i_0" arrivalPos="10.00" arrivalSpeed="10.92" duration="120.00" routeLength="1015.10" waitSteps="14" timeLoss="43.91" rerouteNo="0" devices="tripinfo_left_8" vType="typeWE" speedFactor="1.00" vaporized=""/>
    <tripinfo id="right_14" depart="61.00" departLane="51o_0" departPos="5.10" departSpeed="0.00" departDelay="0.00" arrival="157.00" arrivalLane="52i_0" arrivalPos="10.00" arrivalSpeed="11.57" duration="96.00" routeLength="1015.10" waitSteps="0" timeLoss="19.36" rerouteNo="0" devices="tripinfo_right_14" vType="typeWE" speedFactor="1.00" vaporized=""/>
    <tripinfo id="left_9" depart="41.00" departLane="52o_0" departPos="5.10" departSpeed="0.00" departDelay="0.00" arrival="159.00" arrivalLane="51i_0" arrivalPos="10.00" arrivalSpeed="11.74" duration="118.00" routeLength="1015.10" waitSteps="13" timeLoss="41.88" rerouteNo="0" devices="tripinfo_left_9" vType="typeWE" speedFactor="1.00" vaporized=""/>
    <tripinfo id="right_15" depart="69.00" departLane="51o_0" departPos="5.10" departSpeed="0.00" departDelay="0.00" arrival="161.00" arrivalLane="52i_0" arrivalPos="10.00" arrivalSpeed="11.80" duration="92.00" routeLength="1015.10" waitSteps="0" timeLoss="15.28" rerouteNo="0" devices="tripinfo_right_15" vType="typeWE" speedFactor="1.00" vaporized=""/>
    <tripinfo id="left_11" depart="46.00" departLane="52o_0" departPos="5.10" departSpeed="0.00" departDelay="1.00" arrival="161.00" arrivalLane="51i_0" arrivalPos="10.00" arrivalSpeed="11.62" duration="115.00" routeLength="1015.10" waitSteps="9" timeLoss="38.90" rerouteNo="0" devices="tripinfo_left_11" vType="typeWE" speedFactor="1.00" vaporized=""/>
    <tripinfo id="left_12" depart="53.00" departLane="52o_0" departPos="5.10" departSpeed="0.00" departDelay="0.00" arrival="163.00" arrivalLane="51i_0" arrivalPos="10.00" arrivalSpeed="11.31" duration="110.00" routeLength="1015.10" waitSteps="4" timeLoss="33.68" rerouteNo="0" devices="tripinfo_left_12" vType="typeWE" speedFactor="1.00" vaporized=""/>
    <tripinfo id="right_16" depart="84.00" departLane="51o_0" departPos="5.10" departSpeed="0.00" departDelay="0.00" arrival="175.00" arrivalLane="52i_0" arrivalPos="10.00" arrivalSpeed="11.68" duration="91.00" routeLength="1015.10" waitSteps="0" timeLoss="14.72" rerouteNo="0" devices="tripinfo_right_16" vType="typeWE" speedFactor="1.00" vaporized=""/>
    <tripinfo id="left_17" depart="85.00" departLane="52o_0" departPos="5.10" departSpeed="0.00" departDelay="0.00" arrival="176.00" arrivalLane="51i_0" arrivalPos="10.00" arrivalSpeed="11.54" duration="91.00" routeLength="1015.10" waitSteps="0" timeLoss="14.69" rerouteNo="0" devices="tripinfo_left_17" vType="typeWE" speedFactor="1.00" vaporized=""/>
    <tripinfo id="down_18" depart="89.00" departLane="54o_0" departPos="7.10" departSpeed="0.00" departDelay="0.00" arrival="199.00" arrivalLane="53i_0" arrivalPos="10.00" arrivalSpeed="11.62" duration="110.00" routeLength="1013.10" waitSteps="11" timeLoss="38.54" rerouteNo="0" devices="tripinfo_down_18" vType="typeNS" speedFactor="1.00" vaporized=""/>
    <tripinfo id="down_19" depart="96.00" departLane="54o_0" departPos="7.10" departSpeed="0.00" departDelay="0.00" arrival="202.00" arrivalLane="53i_0" arrivalPos="10.00" arrivalSpeed="11.82" duration="106.00" routeLength="1013.10" waitSteps="4" timeLoss="34.30" rerouteNo="0" devices="tripinfo_down_19" vType="typeNS" speedFactor="1.00" vaporized=""/>
    <tripinfo id="left_21" depart="99.00" departLane="52o_0" departPos="5.10" departSpeed="0.00" departDelay="0.00" arrival="256.00" arrivalLane="51i_0" arrivalPos="10.00" arrivalSpeed="11.20" duration="157.00" routeLength="1015.10" waitSteps="55" timeLoss="80.98" rerouteNo="0" devices="tripinfo_left_21" vType="typeWE" speedFactor="1.00" vaporized=""/>
    <tripinfo id="right_20" depart="99.00" departLane="51o_0" departPos="5.10" departSpeed="0.00" departDelay="0.00" arrival="256.00" arrivalLane="52i_0" arrivalPos="10.00" arrivalSpeed="11.40" duration="157.00" routeLength="1015.10" waitSteps="55" timeLoss="80.38" rerouteNo="0" devices="tripinfo_right_20" vType="typeWE" speedFactor="1.00" vaporized=""/>
    <tripinfo id="right_22" depart="108.00" departLane="51o_0" departPos="5.10" departSpeed="0.00" departDelay="0.00" arrival="257.00" arrivalLane="52i_0" arrivalPos="10.00" arrivalSpeed="11.45" duration="149.00" routeLength="1015.10" waitSteps="48" timeLoss="73.09" rerouteNo="0" devices="tripinfo_right_22" vType="typeWE" speedFactor="1.00" vaporized=""/>
    <tripinfo id="left_26" depart="131.00" departLane="52o_0" departPos="5.10" departSpeed="0.00" departDelay="0.00" arrival="259.00" arrivalLane="51i_0" arrivalPos="10.00" arrivalSpeed="11.38" duration="128.00" routeLength="1015.10" waitSteps="24" timeLoss="51.41" rerouteNo="0" devices="tripinfo_left_26" vType="typeWE" speedFactor="1.00" vaporized=""/>
    <tripinfo id="right_23" depart="114.00" departLane="51o_0" departPos="5.10" departSpeed="0.00" departDelay="0.00" arrival="260.00" arrivalLane="52i_0" arrivalPos="10.00" arrivalSpeed="11.52" duration="146.00" routeLength="1015.10" waitSteps="40" timeLoss="69.47" rerouteNo="0" devices="tripinfo_right_23" vType="typeWE" speedFactor="1.00" vaporized=""/>
    <tripinfo id="left_27" depart="136.00" departLane="52o_0" departPos="5.10" departSpeed="0.00" departDelay="1.00" arrival="261.00" arrivalLane="51i_0" arrivalPos="10.00" arrivalSpeed="11.46" duration="125.00" routeLength="1015.10" waitSteps="19" timeLoss="48.31" rerouteNo="0" devices="tripinfo_left_27" vType="typeWE" speedFactor="1.00" vaporized=""/>
    <tripinfo id="left_28" depart="141.00" departLane="52o_0" departPos="5.10" departSpeed="0.00" departDelay="3.00" arrival="262.00" arrivalLane="51i_0" arrivalPos="10.00" arrivalSpeed="11.43" duration="121.00" routeLength="1015.10" waitSteps="16" timeLoss="45.18" rerouteNo="0" devices="tripinfo_left_28" vType="typeWE" speedFactor="1.00" vaporized=""/>
    <tripinfo id="right_25" depart="125.00" departLane="51o_0" departPos="5.10" departSpeed="0.00" departDelay="0.00" arrival="262.00" arrivalLane="52i_0" arrivalPos="10.00" arrivalSpeed="11.33" duration="137.00" routeLength="1015.10" waitSteps="33" timeLoss="60.82" rerouteNo="0" devices="tripinfo_right_25" vType="typeWE" speedFactor="1.00" vaporized=""/>
    <tripinfo id="left_29" depart="146.00" departLane="52o_0" departPos="5.10" departSpeed="0.00" departDelay="4.00" arrival="264.00" arrivalLane="51i_0" arrivalPos="10.00" arrivalSpeed="11.52" duration="118.00" routeLength="1015.10" waitSteps="13" timeLoss="42.03" rerouteNo="0" devices="tripinfo_left_29" vType="typeWE" speedFactor="1.00" vaporized=""/>
    <tripinfo id="right_30" depart="156.00" departLane="51o_0" departPos="5.10" departSpeed="0.00" departDelay="11.00" arrival="264.00" arrivalLane="52i_0" arrivalPos="10.00" arrivalSpeed="11.47" duration="108.00" routeLength="1015.10" waitSteps="4" timeLoss="31.63" rerouteNo="0" devices="tripinfo_right_30" vType="typeWE" speedFactor="1.00" vaporized=""/>
    <tripinfo id="left_31" depart="157.00" departLane="52o_0" departPos="5.10" departSpeed="0.00" departDelay="4.00" arrival="266.00" arrivalLane="51i_0" arrivalPos="10.00" arrivalSpeed="11.56" duration="109.00" routeLength="1015.10" waitSteps="4" timeLoss="33.07" rerouteNo="0" devices="tripinfo_left_31" vType="typeWE" speedFactor="1.00" vaporized=""/>
    <tripinfo id="right_35" depart="167.00" departLane="51o_0" departPos="5.10" departSpeed="0.00" departDelay="0.00" arrival="266.00" arrivalLane="52i_0" arrivalPos="10.00" arrivalSpeed="11.49" duration="99.00" routeLength="1015.10" waitSteps="0" timeLoss="22.61" rerouteNo="0" devices="tripinfo_right_35" vType="typeWE" speedFactor="1.00" vaporized=""/>
    <tripinfo id="left_32" depart="162.00" departLane="52o_0" departPos="5.10" departSpeed="0.00" departDelay="6.00" arrival="268.00" arrivalLane="51i_0" arrivalPos="10.00" arrivalSpeed="11.57" duration="106.00" routeLength="1015.10" waitSteps="0" timeLoss="30.08" rerouteNo="0" devices="tripinfo_left_32" vType="typeWE" speedFactor="1.00" vaporized=""/>
    <tripinfo id="right_36" depart="172.00" departLane="51o_0" departPos="5.10" departSpeed="0.00" departDelay="4.00" arrival="268.00" arrivalLane="52i_0" arrivalPos="10.00" arrivalSpeed="11.60" duration="96.00" routeLength="1015.10" waitSteps="0" timeLoss="19.44" rerouteNo="0" devices="tripinfo_right_36" vType="typeWE" speedFactor="1.00" vaporized=""/>
    <tripinfo id="left_33" depart="167.00" departLane="52o_0" departPos="5.10" departSpeed="0.00" departDelay="7.00" arrival="270.00" arrivalLane="51i_0" arrivalPos="10.00" arrivalSpeed="10.83" duration="103.00" routeLength="1015.10" waitSteps="0" timeLoss="26.99" rerouteNo="0" devices="tripinfo_left_33" vType="typeWE" speedFactor="1.00" vaporized=""/>
    <tripinfo id="right_40" depart="177.00" departLane="51o_0" departPos="5.10" departSpeed="0.00" departDelay="1.00" arrival="270.00" arrivalLane="52i_0" arrivalPos="10.00" arrivalSpeed="11.57" duration="93.00" routeLength="1015.10" waitSteps="0" timeLoss="16.36" rerouteNo="0" devices="tripinfo_right_40" vType="typeWE" speedFactor="1.00" vaporized=""/>
    <tripinfo id="left_34" depart="172.00" departLane="52o_0" departPos="5.10" departSpeed="0.00" departDelay="8.00" arrival="272.00" arrivalLane="51i_0" arrivalPos="10.00" arrivalSpeed="11.47" duration="100.00" routeLength="1015.10" waitSteps="0" timeLoss="24.15" rerouteNo="0" devices="tripinfo_left_34" vType="typeWE" speedFactor="1.00" vaporized=""/>
    <tripinfo id="left_37" depart="177.00" departLane="52o_0" departPos="5.10" departSpeed="0.00" departDelay="8.00" arrival="274.00" arrivalLane="51i_0" arrivalPos="10.00" arrivalSpeed="11.60" duration="97.00" routeLength="1015.10" waitSteps="1" timeLoss="20.94" rerouteNo="0" devices="tripinfo_left_37" vType="typeWE" speedFactor="1.00" vaporized=""/>
    <tripinfo id="right_41" depart="182.00" departLane="51o_0" departPos="5.10" departSpeed="0.00" departDelay="1.00" arrival="274.00" arrivalLane="52i_0" arrivalPos="10.00" arrivalSpeed="11.63" duration="92.00" routeLength="1015.10" waitSteps="0" timeLoss="15.66" rerouteNo="0" devices="tripinfo_right_41" vType="typeWE" speedFactor="1.00" vaporized=""/>
    <tripinfo id="left_38" depart="183.00" departLane="52o_0" departPos="5.10" departSpeed="0.00" departDelay="11.00" arrival="276.00" arrivalLane="51i_0" arrivalPos="10.00" arrivalSpeed="11.44" duration="93.00" routeLength="1015.10" waitSteps="0" timeLoss="16.87" rerouteNo="0" devices="tripinfo_left_38" vType="typeWE" speedFactor="1.00" vaporized=""/>
    <tripinfo id="right_42" depart="187.00" departLane="51o_0" departPos="5.10" departSpeed="0.00" departDelay="4.00" arrival="279.00" arrivalLane="52i_0" arrivalPos="10.00" arrivalSpeed="11.24" duration="92.00" routeLength="1015.10" waitSteps="0" timeLoss="15.36" rerouteNo="0" devices="tripinfo_right_42" vType="typeWE" speedFactor="1.00" vaporized=""/>
    <tripinfo id="left_43" depart="194.00" departLane="52o_0" departPos="5.10" departSpeed="0.00" departDelay="0.00" arrival="286.00" arrivalLane="51i_0" arrivalPos="10.00" arrivalSpeed="11.37" duration="92.00" routeLength="1015.10" waitSteps="0" timeLoss="15.45" rerouteNo="0" devices="tripinfo_left_43" vType="typeWE" speedFactor="1.00" vaporized=""/>
    <tripinfo id="left_44" depart="199.00" departLane="52o_0" departPos="5.10" departSpeed="0.00" departDelay="3.00" arrival="291.00" arrivalLane="51i_0" arrivalPos="10.00" arrivalSpeed="11.47" duration="92.00" routeLength="1015.10" waitSteps="0" timeLoss="15.72" rerouteNo="0" devices="tripinfo_left_44" vType="typeWE" speedFactor="1.00" vaporized=""/>
    <tripinfo id="right_46" depart="200.00" departLane="51o_0" departPos="5.10" departSpeed="0.00" departDelay="0.00" arrival="292.00" arrivalLane="52i_0" arrivalPos="10.00" arrivalSpeed="11.61" duration="92.00" routeLength="1015.10" waitSteps="0" timeLoss="15.80" rerouteNo="0" devices="tripinfo_right_46" vType="typeWE" speedFactor="1.00" vaporized=""/>
    <tripinfo id="left_45" depart="204.00" departLane="52o_0" departPos="5.10" departSpeed="0.00" departDelay="5.00" arrival="295.00" arrivalLane="51i_0" arrivalPos="10.00" arrivalSpeed="11.46" duration="91.00" routeLength="1015.10" waitSteps="0" timeLoss="14.91" rerouteNo="0" devices="tripinfo_left_45" vType="typeWE" speedFactor="1.00" vaporized=""/>
    <tripinfo id="down_24" depart="122.00" departLane="54o_0" departPos="7.10" departSpeed="0.00" departDelay="0.00" arrival="313.00" arrivalLane="53i_0" arrivalPos="10.00" arrivalSpeed="11.68" duration="191.00" routeLength="1013.10" waitSteps="90" timeLoss="119.25" rerouteNo="0" devices="tripinfo_down_24" vType="typeNS" speedFactor="1.00" vaporized=""/>
    <tripinfo id="down_39" depart="172.00" departLane="54o_0" departPos="7.10" departSpeed="0.00" departDelay="0.00" arrival="315.00" arrivalLane="53i_0" arrivalPos="10.00" arrivalSpeed="11.35" duration="143.00" routeLength="1013.10" waitSteps="43" timeLoss="71.42" rerouteNo="0" devices="tripinfo_down_39" vType="typeNS" speedFactor="1.00" vaporized=""/>
    <tripinfo id="left_47" depart="212.00" departLane="52o_0" departPos="5.10" departSpeed="0.00" departDelay="0.00" arrival="388.00" arrivalLane="51i_0" arrivalPos="10.00" arrivalSpeed="11.42" duration="176.00" routeLength="1015.10" waitSteps="73" timeLoss="99.92" rerouteNo="0" devices="tripinfo_left_47" vType="typeWE" speedFactor="1.00" vaporized=""/>
    <tripinfo id="right_48" depart="217.00" departLane="51o_0" departPos="5.10" departSpeed="0.00" departDelay="0.00" arrival="388.00" arrivalLane="52i_0" arrivalPos="10.00" arrivalSpeed="11.43" duration="171.00" routeLength="1015.10" waitSteps="69" timeLoss="95.10" rerouteNo="0" devices="tripinfo_right_48" vType="typeWE" speedFactor="1.00" vaporized=""/>
    <tripinfo id="left_49" depart="219.00" departLane="52o_0" departPos="5.10" departSpeed="0.00" departDelay="0.00" arrival="391.00" arrivalLane="51i_0" arrivalPos="10.00" arrivalSpeed="11.64" duration="172.00" routeLength="1015.10" waitSteps="70" timeLoss="95.40" rerouteNo="0" devices="tripinfo_left_49" vType="typeWE" speedFactor="1.00" vaporized=""/>
    <tripinfo id="right_50" depart="228.00" departLane="51o_0" departPos="5.10" departSpeed="0.00" departDelay="0.00" arrival="391.00" arrivalLane="52i_0" arrivalPos="10.00" arrivalSpeed="11.18" duration="163.00" routeLength="1015.10" waitSteps="59" timeLoss="86.41" rerouteNo="0" devices="tripinfo_right_50" vType="typeWE" speedFactor="1.00" vaporized=""/>
    <tripinfo id="left_51" depart="234.00" departLane="52o_0" departPos="5.10" departSpeed="0.00" departDelay="0.00" arrival="392.00" arrivalLane="51i_0" arrivalPos="10.00" arrivalSpeed="10.76" duration="158.00" routeLength="1015.10" waitSteps="56" timeLoss="82.03" rerouteNo="0" devices="tripinfo_left_51" vType="typeWE" speedFactor="1.00" vaporized=""/>
    <tripinfo id="right_53" depart="240.00" departLane="51o_0" departPos="5.10" departSpeed="0.00" departDelay="0.00" arrival="393.00" arrivalLane="52i_0" arrivalPos="10.00" arrivalSpeed="11.62" duration="153.00" routeLength="1015.10" waitSteps="49" timeLoss="76.39" rerouteNo="0" devices="tripinfo_right_53" vType="typeWE" speedFactor="1.00" vaporized=""/>
    <tripinfo id="left_52" depart="239.00" departLane="52o_0" departPos="5.10" departSpeed="0.00" departDelay="1.00" arrival="395.00" arrivalLane="51i_0" arrivalPos="10.00" arrivalSpeed="11.44" duration="156.00" routeLength="1015.10" waitSteps="52" timeLoss="79.57" rerouteNo="0" devices="tripinfo_left_52" vType="typeWE" speedFactor="1.00" vaporized=""/>
    <tripinfo id="right_56" depart="286.00" departLane="51o_0" departPos="5.10" departSpeed="0.00" departDelay="2.00" arrival="395.00" arrivalLane="52i_0" arrivalPos="10.00" arrivalSpeed="11.35" duration="109.00" routeLength="1015.10" waitSteps="5" timeLoss="32.99" rerouteNo="0" devices="tripinfo_right_56" vType="typeWE" speedFactor="1.00" vaporized=""/>
    <tripinfo id="left_54" depart="274.00" departLane="52o_0" departPos="5.10" departSpeed="0.00" departDelay="2.00" arrival="397.00" arrivalLane="51i_0" arrivalPos="10.00" arrivalSpeed="11.51" duration="123.00" routeLength="1015.10" waitSteps="18" timeLoss="46.63" rerouteNo="0" devices="tripinfo_left_54" vType="typeWE" speedFactor="1.00" vaporized=""/>
    <tripinfo id="right_57" depart="291.00" departLane="51o_0" departPos="5.10" departSpeed="0.00" departDelay="5.00" arrival="397.00" arrivalLane="52i_0" arrivalPos="10.00" arrivalSpeed="11.58" duration="106.00" routeLength="1015.10" waitSteps="2" timeLoss="30.16" rerouteNo="0" devices="tripinfo_right_57" vType="typeWE" speedFactor="1.00" vaporized=""/>
    <tripinfo id="left_55" depart="279.00" departLane="52o_0" departPos="5.10" departSpeed="0.00" departDelay="4.00" arrival="399.00" arrivalLane="51i_0" arrivalPos="10.00" arrivalSpeed="11.83" duration="120.00" routeLength="1015.10" waitSteps="15" timeLoss="44.12" rerouteNo="0" devices="tripinfo_left_55" vType="typeWE" speedFactor="1.00" vaporized=""/>
    <tripinfo id="right_58" depart="296.00" departLane="51o_0" departPos="5.10" departSpeed="0.00" departDelay="8.00" arrival="399.00" arrivalLane="52i_0" arrivalPos="10.00" arrivalSpeed="11.49" duration="103.00" routeLength="1015.10" waitSteps="0" timeLoss="27.03" rerouteNo="0" devices="tripinfo_right_58" vType="typeWE" speedFactor="1.00" vaporized=""/>
    <tripinfo id="right_59" depart="301.00" departLane="51o_0" departPos="5.10" departSpeed="0.00" departDelay="10.00" arrival="401.00" arrivalLane="52i_0" arrivalPos="10.00" arrivalSpeed="11.58" duration="100.00" routeLength="1015.10" waitSteps="0" timeLoss="23.85" rerouteNo="0" devices="tripinfo_right_59" vType="typeWE" speedFactor="1.00" vaporized=""/>
    <tripinfo id="right_60" depart="307.00" departLane="51o_0" departPos="5.10" departSpeed="0.00" departDelay="13.00" arrival="403.00" arrivalLane="52i_0" arrivalPos="10.00" arrivalSpeed="11.55" duration="96.00" routeLength="1015.10" waitSteps="0" timeLoss="19.62" rerouteNo="0" devices="tripinfo_right_60" vType="typeWE" speedFactor="1.00" vaporized=""/>
    <tripinfo id="right_62" depart="322.00" departLane="51o_0" departPos="5.10" departSpeed="0.00" departDelay="0.00" arrival="412.00" arrivalLane="52i_0" arrivalPos="10.00" arrivalSpeed="11.84" duration="90.00" routeLength="1015.10" waitSteps="0" timeLoss="13.96" rerouteNo="0" devices="tripinfo_right_62" vType="typeWE" speedFactor="1.00" vaporized=""/>
    <tripinfo id="down_61" depart="318.00" departLane="54o_0" departPos="7.10" departSpeed="0.00" departDelay="0.00" arrival="440.00" arrivalLane="53i_0" arrivalPos="10.00" arrivalSpeed="11.49" duration="122.00" routeLength="1013.10" waitSteps="23" timeLoss="50.38" rerouteNo="0" devices="tripinfo_down_61" vType="typeNS" speedFactor="1.00" vaporized=""/>
    <tripinfo id="down_63" depart="331.00" departLane="54o_0" departPos="7.10" departSpeed="0.00" departDelay="0.00" arrival="443.00" arrivalLane="53i_0" arrivalPos="10.00" arrivalSpeed="11.43" duration="112.00" routeLength="1013.10" waitSteps="11" timeLoss="39.99" rerouteNo="0" devices="tripinfo_down_63" vType="typeNS" speedFactor="1.00" vaporized=""/>
    <tripinfo id="down_64" depart="337.00" departLane="54o_0" departPos="7.10" departSpeed="0.00" departDelay="0.00" arrival="445.00" arrivalLane="53i_0" arrivalPos="10.00" arrivalSpeed="11.50" duration="108.00" routeLength="1013.10" waitSteps="5" timeLoss="35.99" rerouteNo="0" devices="tripinfo_down_64" vType="typeNS" speedFactor="1.00" vaporized=""/>
    <tripinfo id="down_68" depart="344.00" departLane="54o_0" departPos="7.10" departSpeed="0.00" departDelay="0.00" arrival="447.00" arrivalLane="53i_0" arrivalPos="10.00" arrivalSpeed="11.40" duration="103.00" routeLength="1013.10" waitSteps="0" timeLoss="31.32" rerouteNo="0" devices="tripinfo_down_68" vType="typeNS" speedFactor="1.00" vaporized=""/>
    <tripinfo id="left_65" depart="339.00" departLane="52o_0" departPos="5.10" departSpeed="0.00" departDelay="0.00" arrival="502.00" arrivalLane="51i_0" arrivalPos="10.00" arrivalSpeed="11.58" duration="163.00" routeLength="1015.10" waitSteps="60" timeLoss="86.76" rerouteNo="0" devices="tripinfo_left_65" vType="typeWE" speedFactor="1.00" vaporized=""/>
    <tripinfo id="right_66" depart="342.00" departLane="51o_0" departPos="5.10" departSpeed="0.00" departDelay="0.00" arrival="502.00" arrivalLane="52i_0" arrivalPos="10.00" arrivalSpeed="11.40" duration="160.00" routeLength="1015.10" waitSteps="57" timeLoss="83.64" rerouteNo="0" devices="tripinfo_right_66" vType="typeWE" speedFactor="1.00" vaporized=""/>
    <tripinfo id="left_67" depart="344.00" departLane="52o_0" departPos="5.10" departSpeed="0.00" departDelay="0.00" arrival="504.00" arrivalLane="51i_0" arrivalPos="10.00" arrivalSpeed="11.71" duration="160.00" routeLength="1015.10" waitSteps="56" timeLoss="83.43" rerouteNo="0" devices="tripinfo_left_67" vType="typeWE" speedFactor="1.00" vaporized=""/>
    <tripinfo id="right_70" depart="354.00" departLane="51o_0" departPos="5.10" departSpeed="0.00" departDelay="0.00" arrival="504.00" arrivalLane="52i_0" arrivalPos="10.00" arrivalSpeed="11.45" duration="150.00" routeLength="1015.10" waitSteps="46" timeLoss="73.51" rerouteNo="0" devices="tripinfo_right_70" vType="typeWE" speedFactor="1.00" vaporized=""/>
    <tripinfo id="left_69" depart="350.00" departLane="52o_0" departPos="5.10" departSpeed="0.00" departDelay="4.00" arrival="506.00" arrivalLane="51i_0" arrivalPos="10.00" arrivalSpeed="11.32" duration="156.00" routeLength="1015.10" waitSteps="53" timeLoss="79.83" rerouteNo="0" devices="tripinfo_left_69" vType="typeWE" speedFactor="1.00" vaporized=""/>
    <tripinfo id="right_71" depart="375.00" departLane="51o_0" departPos="5.10" departSpeed="0.00" departDelay="0.00" arrival="506.00" arrivalLane="52i_0" arrivalPos="10.00" arrivalSpeed="11.52" duration="131.00" routeLength="1015.10" waitSteps="27" timeLoss="54.40" rerouteNo="0" devices="tripinfo_right_71" vType="typeWE" speedFactor="1.00" vaporized=""/>
    <tripinfo id="left_75" depart="388.00" departLane="52o_0" departPos="5.10" departSpeed="0.00" departDelay="0.00" arrival="508.00" arrivalLane="51i_0" arrivalPos="10.00" arrivalSpeed="11.56" duration="120.00" routeLength="1015.10" waitSteps="16" timeLoss="43.67" rerouteNo="0" devices="tripinfo_left_75" vType="typeWE" speedFactor="1.00" vaporized=""/>
    <tripinfo id="right_74" depart="383.00" departLane="51o_0" departPos="5.10" departSpeed="0.00" departDelay="0.00" arrival="508.00" arrivalLane="52i_0" arrivalPos="10.00" arrivalSpeed="11.20" duration="125.00" routeLength="1015.10" waitSteps="18" timeLoss="48.31" rerouteNo="0" devices="tripinfo_right_74" vType="typeWE" speedFactor="1.00" vaporized=""/>
    <tripinfo id="left_76" depart="393.00" departLane="52o_0" departPos="5.10" departSpeed="0.00" departDelay="4.00" arrival="510.00" arrivalLane="51i_0" arrivalPos="10.00" arrivalSpeed="11.58" duration="117.00" routeLength="1015.10" waitSteps="12" timeLoss="40.66" rerouteNo="0" devices="tripinfo_left_76" vType="typeWE" speedFactor="1.00" vaporized=""/>
    <tripinfo id="right_78" depart="397.00" departLane="51o_0" departPos="5.10" departSpeed="0.00" departDelay="3.00" arrival="510.00" arrivalLane="52i_0" arrivalPos="10.00" arrivalSpeed="11.68" duration="113.00" routeLength="1015.10" waitSteps="7" timeLoss="36.59" rerouteNo="0" devices="tripinfo_right_78" vType="typeWE" speedFactor="1.00" vaporized=""/>
    <tripinfo id="right_79" depart="402.00" departLane="51o_0" departPos="5.10" departSpeed="0.00" departDelay="7.00" arrival="511.00" arrivalLane="52i_0" arrivalPos="10.00" arrivalSpeed="10.72" duration="109.00" routeLength="1015.10" waitSteps="4" timeLoss="33.00" rerouteNo="0" devices="tripinfo_right_79" vType="typeWE" speedFactor="1.00" vaporized=""/>
    <tripinfo id="left_77" depart="399.00" departLane="52o_0" departPos="5.10" departSpeed="0.00" departDelay="8.00" arrival="512.00" arrivalLane="51i_0" arrivalPos="10.00" arrivalSpeed="11.81" duration="113.00" routeLength="1015.10" waitSteps="6" timeLoss="36.76" rerouteNo="0" devices="tripinfo_left_77" vType="typeWE" speedFactor="1.00" vaporized=""/>
    <tripinfo id="right_81" depart="412.00" departLane="51o_0" departPos="5.10" departSpeed="0.00" departDelay="0.00" arrival="513.00" arrivalLane="52i_0" arrivalPos="10.00" arrivalSpeed="11.83" duration="101.00" routeLength="1015.10" waitSteps="0" timeLoss="25.04" rerouteNo="0" devices="tripinfo_right_81" vType="typeWE" speedFactor="1.00" vaporized=""/>
    <tripinfo id="left_82" depart="413.00" departLane="52o_0" departPos="5.10" departSpeed="0.00" departDelay="0.00" arrival="514.00" arrivalLane="51i_0" arrivalPos="10.00" arrivalSpeed="11.72" duration="101.00" routeLength="1015.10" waitSteps="0" timeLoss="24.55" rerouteNo="0" devices="tripinfo_left_82" vType="typeWE" speedFactor="1.00" vaporized=""/>
    <tripinfo id="left_83" depart="418.00" departLane="52o_0" departPos="5.10" departSpeed="0.00" departDelay="3.00" arrival="515.00" arrivalLane="51i_0" arrivalPos="10.00" arrivalSpeed="11.01" duration="97.00" routeLength="1015.10" waitSteps="0" timeLoss="21.05" rerouteNo="0" devices="tripinfo_left_83" vType="typeWE" speedFactor="1.00" vaporized=""/>